# vtk DataFile Version 3.0
vtk output
ASCII
DATASET UNSTRUCTURED_GRID

POINTS 65 float
-8000.000 30000.000 -5000.000
-6000.000 30000.000 -5000.000
-4000.000 30000.000 -5000.000
-2000.000 30000.000 -5000.000
0.000 30000.000 -5000.000
2000.000 30000.000 -5000.000
4000.000 30000.000 -5000.000
6000.000 30000.000 -5000.000
8000.000 30000.000 -5000.000
10000.000 30000.000 -5000.000
-10000.000 30000.000 -3000.000
-8000.000 30000.000 -3000.000
-6000.000 30000.000 -3000.000
-4000.000 30000.000 -3000.000
-2000.000 30000.000 -3000.000
0.000 30000.000 -3000.000
2000.000 30000.000 -3000.000
4000.000 30000.000 -3000.000
6000.000 30000.000 -3000.000
8000.000 30000.000 -3000.000
10000.000 30000.000 -3000.000
-10000.000 30000.000 -1000.000
-8000.000 30000.000 -1000.000
-6000.000 30000.000 -1000.000
-4000.000 30000.000 -1000.000
-2000.000 30000.000 -1000.000
0.000 30000.000 -1000.000
2000.000 30000.000 -1000.000
4000.000 30000.000 -1000.000
6000.000 30000.000 -1000.000
8000.000 30000.000 -1000.000
10000.000 30000.000 -1000.000
-10000.000 30000.000 1000.000
-8000.000 30000.000 1000.000
-6000.000 30000.000 1000.000
-4000.000 30000.000 1000.000
-2000.000 30000.000 1000.000
0.000 30000.000 1000.000
2000.000 30000.000 1000.000
4000.000 30000.000 1000.000
6000.000 30000.000 1000.000
8000.000 30000.000 1000.000
10000.000 30000.000 1000.000
-10000.000 30000.000 3000.000
-8000.000 30000.000 3000.000
-6000.000 30000.000 3000.000
-4000.000 30000.000 3000.000
-2000.000 30000.000 3000.000
0.000 30000.000 3000.000
2000.000 30000.000 3000.000
4000.000 30000.000 3000.000
6000.000 30000.000 3000.000
8000.000 30000.000 3000.000
10000.000 30000.000 3000.000
-10000.000 30000.000 5000.000
-8000.000 30000.000 5000.000
-6000.000 30000.000 5000.000
-4000.000 30000.000 5000.000
-2000.000 30000.000 5000.000
0.000 30000.000 5000.000
2000.000 30000.000 5000.000
4000.000 30000.000 5000.000
6000.000 30000.000 5000.000
8000.000 30000.000 5000.000
10000.000 30000.000 5000.000
CELL_TYPES 99
5
5
5
5
5
5
5
5
5
5
5
5
5
5
5
5
5
5
5
5
5
5
5
5
5
5
5
5
5
5
5
5
5
5
5
5
5
5
5
5
5
5
5
5
5
5
5
5
5
5
5
5
5
5
5
5
5
5
5
5
5
5
5
5
5
5
5
5
5
5
5
5
5
5
5
5
5
5
5
5
5
5
5
5
5
5
5
5
5
5
5
5
5
5
5
5
5
5
5
CELLS 99 396
3 52 63 64 
3 64 53 52 
3 52 62 63 
3 62 52 51 
3 50 61 62 
3 62 51 50 
3 50 60 61 
3 60 50 49 
3 48 59 60 
3 60 49 48 
3 48 58 59 
3 58 48 47 
3 46 57 58 
3 58 47 46 
3 46 56 57 
3 56 46 45 
3 44 55 56 
3 56 45 44 
3 44 54 55 
3 54 44 43 
3 42 52 53 
3 52 42 41 
3 40 51 52 
3 52 41 40 
3 40 50 51 
3 50 40 39 
3 38 49 50 
3 50 39 38 
3 38 48 49 
3 48 38 37 
3 36 47 48 
3 48 37 36 
3 36 46 47 
3 46 36 35 
3 34 45 46 
3 46 35 34 
3 34 44 45 
3 44 34 33 
3 32 43 44 
3 44 33 32 
3 30 41 42 
3 42 31 30 
3 30 40 41 
3 40 30 29 
3 28 39 40 
3 40 29 28 
3 28 38 39 
3 38 28 27 
3 26 37 38 
3 38 27 26 
3 26 36 37 
3 36 26 25 
3 24 35 36 
3 36 25 24 
3 24 34 35 
3 34 24 23 
3 22 33 34 
3 34 23 22 
3 22 32 33 
3 32 22 21 
3 20 30 31 
3 30 20 19 
3 18 29 30 
3 30 19 18 
3 18 28 29 
3 28 18 17 
3 16 27 28 
3 28 17 16 
3 16 26 27 
3 26 16 15 
3 14 25 26 
3 26 15 14 
3 14 24 25 
3 24 14 13 
3 12 23 24 
3 24 13 12 
3 12 22 23 
3 22 12 11 
3 10 21 22 
3 22 11 10 
3 8 19 20 
3 20 9 8 
3 8 18 19 
3 18 8 7 
3 6 17 18 
3 18 7 6 
3 6 16 17 
3 16 6 5 
3 4 15 16 
3 16 5 4 
3 4 14 15 
3 14 4 3 
3 2 13 14 
3 14 3 2 
3 2 12 13 
3 12 2 1 
3 0 11 12 
3 12 1 0 
3 0 10 11 
CELL_DATA 99 
SCALARS elemTag int 1
LOOKUP_TABLE default
33 
33 
33 
33 
33 
33 
33 
33 
33 
33 
33 
33 
33 
33 
33 
33 
33 
33 
33 
33 
33 
23 
33 
23 
33 
23 
33 
23 
33 
23 
33 
23 
33 
23 
33 
23 
33 
23 
33 
23 
23 
23 
23 
23 
23 
23 
23 
23 
23 
23 
23 
23 
23 
23 
23 
23 
23 
23 
23 
23 
23 
13 
23 
13 
23 
13 
23 
13 
23 
13 
23 
13 
23 
13 
23 
13 
23 
13 
23 
13 
13 
13 
13 
13 
13 
13 
13 
13 
13 
13 
13 
13 
13 
13 
13 
13 
13 
13 
13 
VECTORS fiber float
-0.000000 1.000000 0.000000
-0.000000 1.000000 0.000000
-0.000000 1.000000 0.000000
-0.000000 1.000000 0.000000
-0.000000 1.000000 0.000000
-0.000000 1.000000 0.000000
-0.000000 1.000000 0.000000
-0.000000 1.000000 0.000000
-0.000000 1.000000 0.000000
-0.000000 1.000000 0.000000
-0.000000 1.000000 0.000000
-0.000000 1.000000 0.000000
-0.000000 1.000000 0.000000
-0.000000 1.000000 0.000000
-0.000000 1.000000 0.000000
-0.000000 1.000000 0.000000
-0.000000 1.000000 0.000000
-0.000000 1.000000 0.000000
-0.000000 1.000000 0.000000
-0.000000 1.000000 0.000000
-0.000000 1.000000 0.000000
-0.000000 1.000000 0.000000
-0.000000 1.000000 0.000000
-0.000000 1.000000 0.000000
-0.000000 1.000000 0.000000
-0.000000 1.000000 0.000000
-0.000000 1.000000 0.000000
-0.000000 1.000000 0.000000
-0.000000 1.000000 0.000000
-0.000000 1.000000 0.000000
-0.000000 1.000000 0.000000
-0.000000 1.000000 0.000000
-0.000000 1.000000 0.000000
-0.000000 1.000000 0.000000
-0.000000 1.000000 0.000000
-0.000000 1.000000 0.000000
-0.000000 1.000000 0.000000
-0.000000 1.000000 0.000000
-0.000000 1.000000 0.000000
-0.000000 1.000000 0.000000
-0.000000 1.000000 0.000000
-0.000000 1.000000 0.000000
-0.000000 1.000000 0.000000
-0.000000 1.000000 0.000000
-0.000000 1.000000 0.000000
-0.000000 1.000000 0.000000
-0.000000 1.000000 0.000000
-0.000000 1.000000 0.000000
-0.000000 1.000000 0.000000
-0.000000 1.000000 0.000000
-0.000000 1.000000 0.000000
-0.000000 1.000000 0.000000
-0.000000 1.000000 0.000000
-0.000000 1.000000 0.000000
-0.000000 1.000000 0.000000
-0.000000 1.000000 0.000000
-0.000000 1.000000 0.000000
-0.000000 1.000000 0.000000
-0.000000 1.000000 0.000000
-0.000000 1.000000 0.000000
-0.000000 1.000000 0.000000
-0.000000 1.000000 0.000000
-0.000000 1.000000 0.000000
-0.000000 1.000000 0.000000
-0.000000 1.000000 0.000000
-0.000000 1.000000 0.000000
-0.000000 1.000000 0.000000
-0.000000 1.000000 0.000000
-0.000000 1.000000 0.000000
-0.000000 1.000000 0.000000
-0.000000 1.000000 0.000000
-0.000000 1.000000 0.000000
-0.000000 1.000000 0.000000
-0.000000 1.000000 0.000000
-0.000000 1.000000 0.000000
-0.000000 1.000000 0.000000
-0.000000 1.000000 0.000000
-0.000000 1.000000 0.000000
-0.000000 1.000000 0.000000
-0.000000 1.000000 0.000000
-0.000000 1.000000 0.000000
-0.000000 1.000000 0.000000
-0.000000 1.000000 0.000000
-0.000000 1.000000 0.000000
-0.000000 1.000000 0.000000
-0.000000 1.000000 0.000000
-0.000000 1.000000 0.000000
-0.000000 1.000000 0.000000
-0.000000 1.000000 0.000000
-0.000000 1.000000 0.000000
-0.000000 1.000000 0.000000
-0.000000 1.000000 0.000000
-0.000000 1.000000 0.000000
-0.000000 1.000000 0.000000
-0.000000 1.000000 0.000000
-0.000000 1.000000 0.000000
-0.000000 1.000000 0.000000
-0.000000 1.000000 0.000000
-0.000000 1.000000 0.000000
VECTORS sheet float
1.000000 0.000000 -0.000000
1.000000 0.000000 -0.000000
1.000000 0.000000 -0.000000
1.000000 0.000000 -0.000000
1.000000 0.000000 -0.000000
1.000000 0.000000 -0.000000
1.000000 0.000000 -0.000000
1.000000 0.000000 -0.000000
1.000000 0.000000 -0.000000
1.000000 0.000000 -0.000000
1.000000 0.000000 -0.000000
1.000000 0.000000 -0.000000
1.000000 0.000000 -0.000000
1.000000 0.000000 -0.000000
1.000000 0.000000 -0.000000
1.000000 0.000000 -0.000000
1.000000 0.000000 -0.000000
1.000000 0.000000 -0.000000
1.000000 0.000000 -0.000000
1.000000 0.000000 -0.000000
1.000000 0.000000 -0.000000
1.000000 0.000000 -0.000000
1.000000 0.000000 -0.000000
1.000000 0.000000 -0.000000
1.000000 0.000000 -0.000000
1.000000 0.000000 -0.000000
1.000000 0.000000 -0.000000
1.000000 0.000000 -0.000000
1.000000 0.000000 -0.000000
1.000000 0.000000 -0.000000
1.000000 0.000000 -0.000000
1.000000 0.000000 -0.000000
1.000000 0.000000 -0.000000
1.000000 0.000000 -0.000000
1.000000 0.000000 -0.000000
1.000000 0.000000 -0.000000
1.000000 0.000000 -0.000000
1.000000 0.000000 -0.000000
1.000000 0.000000 -0.000000
1.000000 0.000000 -0.000000
1.000000 0.000000 -0.000000
1.000000 0.000000 -0.000000
1.000000 0.000000 -0.000000
1.000000 0.000000 -0.000000
1.000000 0.000000 -0.000000
1.000000 0.000000 -0.000000
1.000000 0.000000 -0.000000
1.000000 0.000000 -0.000000
1.000000 0.000000 -0.000000
1.000000 0.000000 -0.000000
1.000000 0.000000 -0.000000
1.000000 0.000000 -0.000000
1.000000 0.000000 -0.000000
1.000000 0.000000 -0.000000
1.000000 0.000000 -0.000000
1.000000 0.000000 -0.000000
1.000000 0.000000 -0.000000
1.000000 0.000000 -0.000000
1.000000 0.000000 -0.000000
1.000000 0.000000 -0.000000
1.000000 0.000000 -0.000000
1.000000 0.000000 -0.000000
1.000000 0.000000 -0.000000
1.000000 0.000000 -0.000000
1.000000 0.000000 -0.000000
1.000000 0.000000 -0.000000
1.000000 0.000000 -0.000000
1.000000 0.000000 -0.000000
1.000000 0.000000 -0.000000
1.000000 0.000000 -0.000000
1.000000 0.000000 -0.000000
1.000000 0.000000 -0.000000
1.000000 0.000000 -0.000000
1.000000 0.000000 -0.000000
1.000000 0.000000 -0.000000
1.000000 0.000000 -0.000000
1.000000 0.000000 -0.000000
1.000000 0.000000 -0.000000
1.000000 0.000000 -0.000000
1.000000 0.000000 -0.000000
1.000000 0.000000 -0.000000
1.000000 0.000000 -0.000000
1.000000 0.000000 -0.000000
1.000000 0.000000 -0.000000
1.000000 0.000000 -0.000000
1.000000 0.000000 -0.000000
1.000000 0.000000 -0.000000
1.000000 0.000000 -0.000000
1.000000 0.000000 -0.000000
1.000000 0.000000 -0.000000
1.000000 0.000000 -0.000000
1.000000 0.000000 -0.000000
1.000000 0.000000 -0.000000
1.000000 0.000000 -0.000000
1.000000 0.000000 -0.000000
1.000000 0.000000 -0.000000
1.000000 0.000000 -0.000000
1.000000 0.000000 -0.000000
1.000000 0.000000 -0.000000
